
     Program PWSCF v.7.0 starts on  3Jun2022 at  7: 4: 2 

     This program is part of the open-source Quantum ESPRESSO suite
     for quantum simulation of materials; please cite
         "P. Giannozzi et al., J. Phys.:Condens. Matter 21 395502 (2009);
         "P. Giannozzi et al., J. Phys.:Condens. Matter 29 465901 (2017);
         "P. Giannozzi et al., J. Chem. Phys. 152 154105 (2020);
          URL http://www.quantum-espresso.org", 
     in publications or presentations arising from this work. More details at
     http://www.quantum-espresso.org/quote

     Parallel version (MPI & OpenMP), running on      40 processor cores
     Number of MPI processes:                40
     Threads/MPI process:                     1

     MPI processes distributed on     1 nodes
     248959 MiB available memory on the printing compute node when the environment starts
 
     Reading input from bands.supercell.in

     Current dimensions of program PWSCF are:
     Max number of different atomic species (ntypx) = 10
     Max number of k-points (npk) =  40000
     Max angular momentum in pseudopotentials (lmaxx) =  4

     Atomic positions and unit cell read from directory:
     ./temp_supercell/si.save/
     Atomic positions from file used, from input discarded
 
     Found identity + (  0.0000 -0.0000 -0.5000) symmetry
     This is a supercell, fractional translations are disabled
 
     K-points division:     npool     =      10
     R & G space division:  proc/nbgrp/npool/nimage =       4
     Subspace diagonalization in iterative solution of the eigenvalue problem:
     a serial algorithm will be used

 
     Parallelization info
     --------------------
     sticks:   dense  smooth     PW     G-vecs:    dense   smooth      PW
     Min         256     256     75                10746    10746    1683
     Max         257     257     76                10750    10750    1686
     Sum        1027    1027    301                42993    42993    6737
 
     Using Slab Decomposition
 


     bravais-lattice index     =            0
     lattice parameter (alat)  =      10.2633  a.u.
     unit-cell volume          =     540.5409 (a.u.)^3
     number of atoms/cell      =            4
     number of atomic types    =            1
     number of electrons       =        16.00
     number of Kohn-Sham states=           16
     kinetic-energy cutoff     =      70.0000  Ry
     charge density cutoff     =     280.0000  Ry
     Exchange-correlation= SLA  PW   NOGX NOGC
                           (   1   4   0   0   0   0   0)

     celldm(1)=  10.263280  celldm(2)=   0.000000  celldm(3)=   0.000000
     celldm(4)=   0.000000  celldm(5)=   0.000000  celldm(6)=   0.000000

     crystal axes: (cart. coord. in units of alat)
               a(1) = (  -0.497502  -0.049917   0.500000 )  
               a(2) = (  -0.049917   0.497502   0.500000 )  
               a(3) = (  -2.089842   0.795337   1.000000 )  

     reciprocal axes: (cart. coord. in units 2 pi/alat)
               b(1) = (  0.199667 -1.990008  2.000000 )  
               b(2) = (  0.895171  1.094838  1.000000 )  
               b(3) = ( -0.547419  0.447585 -0.500000 )  


     PseudoPot. # 1 for Si read from file:
     ~/PP/all/Si.dojo.sr.ONCVv0.4.lda.standard.upf
     MD5 check sum: Not computed, couldn't open file
     Pseudo is Norm-conserving + core correction, Zval =  4.0
     Generated using ONCVPSP code by D. R. Hamann
     Using radial grid of 1510 points,  6 beta functions with: 
                l(1) =   0
                l(2) =   0
                l(3) =   1
                l(4) =   1
                l(5) =   2
                l(6) =   2

     atomic species   valence    mass     pseudopotential
        Si             4.00    28.08550     Si( 1.00)

     No symmetry found



   Cartesian axes

     site n.     atom                  positions (alat units)
         1           Si  tau(   1) = (   0.0000000   0.0000000   0.0000000  )
         2           Si  tau(   2) = (  -0.2737094   0.2237927   0.2500000  )
         3           Si  tau(   3) = (  -1.0449209   0.3976687   0.5000000  )
         4           Si  tau(   4) = (  -1.3186303   0.6214614   0.7500000  )

     number of k points=    87
                       cart. coord. in units 2pi/alat
        k(    1) = (   0.0000000   0.0000000   0.0000000), wk =   0.0229885
        k(    2) = (  -0.0052544   0.0523686   0.0000000), wk =   0.0229885
        k(    3) = (  -0.0105088   0.1047373   0.0000000), wk =   0.0229885
        k(    4) = (  -0.0157632   0.1571059   0.0000000), wk =   0.0229885
        k(    5) = (  -0.0210176   0.2094746   0.0000000), wk =   0.0229885
        k(    6) = (  -0.0262719   0.2618432   0.0000000), wk =   0.0229885
        k(    7) = (  -0.0315263   0.3142118   0.0000000), wk =   0.0229885
        k(    8) = (  -0.0367807   0.3665805   0.0000000), wk =   0.0229885
        k(    9) = (  -0.0420351   0.4189491   0.0000000), wk =   0.0229885
        k(   10) = (  -0.0472895   0.4713178   0.0000000), wk =   0.0229885
        k(   11) = (  -0.0525439   0.5236864  -0.0000000), wk =   0.0229885
        k(   12) = (  -0.0577983   0.5760550  -0.0000000), wk =   0.0229885
        k(   13) = (  -0.0630527   0.6284237  -0.0000000), wk =   0.0229885
        k(   14) = (  -0.0683071   0.6807923  -0.0000000), wk =   0.0229885
        k(   15) = (  -0.0735615   0.7331610  -0.0000000), wk =   0.0229885
        k(   16) = (  -0.0788159   0.7855296   0.0000000), wk =   0.0229885
        k(   17) = (  -0.0840702   0.8378982   0.0000000), wk =   0.0229885
        k(   18) = (  -0.0893246   0.8902669   0.0000000), wk =   0.0229885
        k(   19) = (  -0.0945790   0.9426355   0.0000000), wk =   0.0229885
        k(   20) = (  -0.0998334   0.9950042   0.0000000), wk =   0.0229885
        k(   21) = (  -0.0583749   0.9991639   0.0416667), wk =   0.0229885
        k(   22) = (  -0.0169164   1.0033236   0.0833333), wk =   0.0229885
        k(   23) = (   0.0245421   1.0074833   0.1250000), wk =   0.0229885
        k(   24) = (   0.0660006   1.0116431   0.1666667), wk =   0.0229885
        k(   25) = (   0.1074591   1.0158028   0.2083333), wk =   0.0229885
        k(   26) = (   0.1489176   1.0199625   0.2500000), wk =   0.0229885
        k(   27) = (   0.6713781   0.8211282   0.0000000), wk =   0.0229885
        k(   28) = (   0.6394077   0.7820269  -0.0000000), wk =   0.0229885
        k(   29) = (   0.6074373   0.7429255   0.0000000), wk =   0.0229885
        k(   30) = (   0.5754669   0.7038242   0.0000000), wk =   0.0229885
        k(   31) = (   0.5434965   0.6647228   0.0000000), wk =   0.0229885
        k(   32) = (   0.5115261   0.6256215  -0.0000000), wk =   0.0229885
        k(   33) = (   0.4795558   0.5865201   0.0000000), wk =   0.0229885
        k(   34) = (   0.4475854   0.5474188   0.0000000), wk =   0.0229885
        k(   35) = (   0.4156150   0.5083175  -0.0000000), wk =   0.0229885
        k(   36) = (   0.3836446   0.4692161   0.0000000), wk =   0.0229885
        k(   37) = (   0.3516742   0.4301148   0.0000000), wk =   0.0229885
        k(   38) = (   0.3197038   0.3910134   0.0000000), wk =   0.0229885
        k(   39) = (   0.2877335   0.3519121  -0.0000000), wk =   0.0229885
        k(   40) = (   0.2557631   0.3128107   0.0000000), wk =   0.0229885
        k(   41) = (   0.2237927   0.2737094   0.0000000), wk =   0.0229885
        k(   42) = (   0.1918223   0.2346081  -0.0000000), wk =   0.0229885
        k(   43) = (   0.1598519   0.1955067   0.0000000), wk =   0.0229885
        k(   44) = (   0.1278815   0.1564054   0.0000000), wk =   0.0229885
        k(   45) = (   0.0959112   0.1173040   0.0000000), wk =   0.0229885
        k(   46) = (   0.0639408   0.0782027  -0.0000000), wk =   0.0229885
        k(   47) = (   0.0319704   0.0391013   0.0000000), wk =   0.0229885
        k(   48) = (   0.0000000   0.0000000   0.0000000), wk =   0.0229885
        k(   49) = (   0.0263285   0.0322011   0.0294118), wk =   0.0229885
        k(   50) = (   0.0526571   0.0644022   0.0588235), wk =   0.0229885
        k(   51) = (   0.0789857   0.0966033   0.0882353), wk =   0.0229885
        k(   52) = (   0.1053142   0.1288044   0.1176471), wk =   0.0229885
        k(   53) = (   0.1316428   0.1610055   0.1470588), wk =   0.0229885
        k(   54) = (   0.1579713   0.1932066   0.1764706), wk =   0.0229885
        k(   55) = (   0.1842999   0.2254077   0.2058824), wk =   0.0229885
        k(   56) = (   0.2106284   0.2576088   0.2352941), wk =   0.0229885
        k(   57) = (   0.2369570   0.2898099   0.2647059), wk =   0.0229885
        k(   58) = (   0.2632855   0.3220111   0.2941177), wk =   0.0229885
        k(   59) = (   0.2896141   0.3542122   0.3235294), wk =   0.0229885
        k(   60) = (   0.3159426   0.3864133   0.3529412), wk =   0.0229885
        k(   61) = (   0.3422712   0.4186144   0.3823529), wk =   0.0229885
        k(   62) = (   0.3685997   0.4508155   0.4117647), wk =   0.0229885
        k(   63) = (   0.3949283   0.4830166   0.4411765), wk =   0.0229885
        k(   64) = (   0.4212568   0.5152177   0.4705882), wk =   0.0229885
        k(   65) = (   0.4475854   0.5474188   0.5000000), wk =   0.0229885
        k(   66) = (   0.4437456   0.5856882   0.4615385), wk =   0.0229885
        k(   67) = (   0.4399059   0.6239576   0.4230769), wk =   0.0229885
        k(   68) = (   0.4360661   0.6622270   0.3846154), wk =   0.0229885
        k(   69) = (   0.4322264   0.7004964   0.3461538), wk =   0.0229885
        k(   70) = (   0.4283866   0.7387658   0.3076923), wk =   0.0229885
        k(   71) = (   0.4245469   0.7770351   0.2692308), wk =   0.0229885
        k(   72) = (   0.4207072   0.8153045   0.2307692), wk =   0.0229885
        k(   73) = (   0.4168674   0.8535739   0.1923077), wk =   0.0229885
        k(   74) = (   0.4130277   0.8918433   0.1538462), wk =   0.0229885
        k(   75) = (   0.4091879   0.9301127   0.1153846), wk =   0.0229885
        k(   76) = (   0.4053482   0.9683821   0.0769231), wk =   0.0229885
        k(   77) = (   0.4015084   1.0066515   0.0384615), wk =   0.0229885
        k(   78) = (   0.3976687   1.0449209   0.0000000), wk =   0.0229885
        k(   79) = (   0.3423907   1.0393746   0.0000000), wk =   0.0229885
        k(   80) = (   0.2871127   1.0338283   0.0000000), wk =   0.0229885
        k(   81) = (   0.2318346   1.0282820   0.0000000), wk =   0.0229885
        k(   82) = (   0.1765566   1.0227357   0.0000000), wk =   0.0229885
        k(   83) = (   0.1212786   1.0171894   0.0000000), wk =   0.0229885
        k(   84) = (   0.0660006   1.0116431   0.0000000), wk =   0.0229885
        k(   85) = (   0.0107226   1.0060968  -0.0000000), wk =   0.0229885
        k(   86) = (  -0.0445554   1.0005505   0.0000000), wk =   0.0229885
        k(   87) = (  -0.0998334   0.9950042   0.0000000), wk =   0.0229885

     Dense  grid:    42993 G-vectors     FFT dimensions: (  40,  40, 135)

     Estimated max dynamical RAM per process >       9.51 MB

     Estimated total dynamical RAM >     380.33 MB

     The potential is recalculated from file :
     ./temp_supercell/si.save/charge-density

     Starting wfcs are   16 randomized atomic wfcs

     Band Structure Calculation
     Davidson diagonalization with overlap

     ethr =  1.00E-13,  avg # of iterations = 69.6

     total cpu time spent up to now is        8.2 secs

     End of band structure calculation

          k = 0.0000 0.0000 0.0000 (  5377 PWs)   bands (ev):

    -5.9263  -3.5927  -0.9568   4.8376   4.8376   6.0323   6.0323   6.0323
     7.4523   8.5672   8.5672   8.5672   9.1974   9.3419   9.3419  13.5664

          k =-0.0053 0.0524 0.0000 (  5374 PWs)   bands (ev):

    -5.9142  -3.6024  -0.9271   4.7520   4.8338   5.9469   5.9802   5.9802
     7.5275   8.5355   8.6339   8.6339   9.2808   9.3385   9.3667  13.6090

          k =-0.0105 0.1047 0.0000 (  5382 PWs)   bands (ev):

    -5.8779  -3.6297  -0.8402   4.5233   4.8229   5.7148   5.8388   5.8388
     7.7212   8.4447   8.8194   8.8194   9.3362   9.4403   9.5034  13.4117

          k =-0.0158 0.1571 0.0000 (  5378 PWs)   bands (ev):

    -5.8174  -3.6698  -0.7019   4.2053   4.8064   5.3836   5.6386   5.6386
     7.9647   8.3062   9.0926   9.0926   9.3600   9.5602   9.8031  13.0518

          k =-0.0210 0.2095 0.0000 (  5370 PWs)   bands (ev):

    -5.7328  -3.7167  -0.5204   3.8418   4.7862   4.9929   5.4073   5.4073
     8.1341   8.1861   9.4256   9.4256   9.4517   9.7226  10.1043  12.6977

          k =-0.0263 0.2618 0.0000 (  5360 PWs)   bands (ev):

    -5.6243  -3.7644  -0.3057   3.4621   4.5677   4.7648   5.1637   5.1637
     7.9421   8.3310   9.6509   9.7992   9.7992   9.9217  10.3029  12.4657

          k =-0.0315 0.3142 0.0000 (  5351 PWs)   bands (ev):

    -5.4921  -3.8080  -0.0697   3.0881   4.1223   4.7444   4.9195   4.9195
     7.7418   8.3955   9.9544  10.1487  10.2010  10.2010  10.2813  12.4818

          k =-0.0368 0.3666 0.0000 (  5352 PWs)   bands (ev):

    -5.3363  -3.8438   0.1703   2.7419   3.6649   4.6818   4.6818   4.7272
     7.5420   8.4124  10.0380  10.3226  10.3885  10.6232  10.6232  12.7523

          k =-0.0420 0.4189 0.0000 (  5362 PWs)   bands (ev):

    -5.1572  -3.8690   0.3845   2.4558   3.2002   4.4555   4.4555   4.7148
     7.3497   8.4109   9.6784  10.6117  10.7083  11.0607  11.0607  12.4531

          k =-0.0473 0.4713 0.0000 (  5346 PWs)   bands (ev):

    -4.9551  -3.8820   0.5211   2.2830   2.7314   4.2434   4.2434   4.7083
     7.1701   8.4068   9.2812  10.7602  11.0225  11.5101  11.5101  12.1105

          k =-0.0525 0.5237-0.0000 (  5350 PWs)   bands (ev):

    -4.7304  -3.8820   0.5211   2.2606   2.2830   4.0478   4.0478   4.7083
     7.0071   8.4068   8.8844  10.7602  11.0225  11.9690  11.9690  12.1105

          k =-0.0578 0.5761-0.0000 (  5338 PWs)   bands (ev):

    -4.4836  -3.8690   0.3845   1.7897   2.4558   3.8701   3.8701   4.7148
     6.8638   8.4109   8.5058  10.6117  10.7083  12.4357  12.4357  12.4531

          k =-0.0631 0.6284-0.0000 (  5336 PWs)   bands (ev):

    -4.2151  -3.8438   0.1703   1.3201   2.7419   3.7114   3.7114   4.7272
     6.7426   8.1543   8.4124  10.3226  10.3885  12.8960  12.9092  12.9092

          k =-0.0683 0.6808-0.0000 (  5340 PWs)   bands (ev):

    -3.9255  -3.8080  -0.0697   0.8536   3.0881   3.5727   3.5727   4.7444
     6.6455   7.8346   8.3955   9.9544  10.1487  13.3470  13.3886  13.3886

          k =-0.0736 0.7332-0.0000 (  5333 PWs)   bands (ev):

    -3.7644  -3.6154  -0.3057   0.3918   3.4544   3.4544   3.4621   4.7648
     6.5742   7.5493   8.3310   9.6509   9.9217  13.7343  13.8732  13.8732

          k =-0.0788 0.7855 0.0000 (  5335 PWs)   bands (ev):

    -3.7167  -3.2857  -0.5204  -0.0637   3.3570   3.3570   3.8418   4.7862
     6.5301   7.2993   8.1861   9.4517   9.7226  13.9238  14.3614  14.3614

          k =-0.0841 0.8379 0.0000 (  5343 PWs)   bands (ev):

    -3.6698  -2.9371  -0.7019  -0.5110   3.2810   3.2810   4.2053   4.8064
     6.5146   7.0849   7.9647   9.3600   9.5602  13.8675  14.8503  14.8503

          k =-0.0893 0.8903 0.0000 (  5347 PWs)   bands (ev):

    -3.6297  -2.5705  -0.9487  -0.8402   3.2265   3.2265   4.5233   4.8229
     6.5289   6.9059   7.7212   9.3362   9.4403  13.7244  15.3308  15.3308

          k =-0.0946 0.9426 0.0000 (  5355 PWs)   bands (ev):

    -3.6024  -2.1872  -1.3749  -0.9271   3.1937   3.1937   4.7520   4.8338
     6.5742   6.7617   7.5275   9.3385   9.3667  13.6090  15.7689  15.7689

          k =-0.0998 0.9950 0.0000 (  5390 PWs)   bands (ev):

    -3.5927  -1.7882  -1.7882  -0.9568   3.1828   3.1828   4.8376   4.8376
     6.6514   6.6514   7.4523   9.3419   9.3419  13.5664  15.9993  15.9993

          k =-0.0584 0.9992 0.0417 (  5343 PWs)   bands (ev):

    -3.6315  -1.7944  -1.7718  -0.8912   3.0791   3.1950   4.8045   4.8222
     6.6656   6.8052   7.5051   9.3273   9.3796  13.5994  15.8467  15.9092

          k =-0.0169 1.0033 0.0833 (  5344 PWs)   bands (ev):

    -3.7366  -1.8150  -1.7227  -0.7061   2.8179   3.2315   4.7144   4.7780
     6.7080   7.2182   7.6509   9.2898   9.4899  13.6656  15.1618  15.4711

          k = 0.0245 1.0075 0.1250 (  5333 PWs)   bands (ev):

    -3.8835  -1.8560  -1.6409  -0.4274   2.4912   3.2919   4.5880   4.7108
     6.7783   7.8040   7.8550   9.2506   9.6653  13.5557  14.5965  14.9924

          k = 0.0660 1.0116 0.1667 (  5327 PWs)   bands (ev):

    -4.0484  -1.9267  -1.5265  -0.0813   2.1703   3.3758   4.4469   4.6282
     6.8759   8.0617   8.4994   9.2517   9.8949  12.9603  14.4763  14.6100

          k = 0.1075 1.0158 0.2083 (  5341 PWs)   bands (ev):

    -4.2145  -2.0377  -1.3796   0.3109   1.9004   3.4822   4.3082   4.5381
     6.9999   8.1936   9.2676   9.3588  10.1656  12.1875  13.9530  14.4929

          k = 0.1489 1.0200 0.2500 (  5339 PWs)   bands (ev):

    -4.3706  -2.1974  -1.2004   0.7313   1.7086   3.6100   4.1847   4.4476
     7.1491   8.2010   9.6075  10.0858  10.4627  11.4254  13.4371  13.9463

          k = 0.6714 0.8211 0.0000 (  5314 PWs)   bands (ev):

    -3.0556  -2.1974  -1.2004  -0.7681   1.7086   2.5643   3.6100   3.8699
     7.1491   9.0211   9.0994  10.0858  11.8836  13.0718  13.3357  13.4371

          k = 0.6394 0.7820-0.0000 (  5326 PWs)   bands (ev):

    -2.8953  -2.3748  -1.0211  -0.7653   1.6160   2.2757   3.6146   3.7354
     7.2957   9.1674   9.2276  10.8113  12.5594  12.6272  12.9688  13.0069

          k = 0.6074 0.7429 0.0000 (  5332 PWs)   bands (ev):

    -2.7163  -2.5862  -0.8184  -0.7987   1.5905   2.0572   3.3504   3.8743
     7.4580   9.2741   9.4422  11.5317  12.1916  12.5910  12.5944  13.1152

          k = 0.5755 0.7038 0.0000 (  5332 PWs)   bands (ev):

    -2.8244  -2.5202  -0.8795  -0.5924   1.6274   1.9218   3.0849   4.0252
     7.6340   9.4168   9.6675  11.7922  12.0964  12.1915  12.2245  12.9175

          k = 0.5435 0.6647 0.0000 (  5342 PWs)   bands (ev):

    -3.0810  -2.3091  -1.0113  -0.3432   1.7199   1.8735   2.8257   4.1862
     7.8210   9.5924   9.9014  11.4249  11.8099  11.8663  12.0478  12.8097

          k = 0.5115 0.6256-0.0000 (  5340 PWs)   bands (ev):

    -3.3477  -2.0860  -1.1877  -0.0712   1.8605   1.9064   2.5800   4.3554
     8.0156   9.7962  10.1314  11.1043  11.4471  11.5260  11.7363  12.5277

          k = 0.4796 0.5865 0.0000 (  5340 PWs)   bands (ev):

    -3.6172  -1.8550  -1.3958   0.2234   2.0071   2.0422   2.3556   4.5301
     8.2127  10.0186  10.2938  10.8954  11.1042  11.2132  11.4024  12.2733

          k = 0.4476 0.5474 0.0000 (  5332 PWs)   bands (ev):

    -3.8836  -1.6221  -1.6221   0.5402   2.1611   2.1611   2.2593   4.7075
     8.4062  10.2283  10.2283  10.7815  10.9595  10.9595  11.0778  12.0516

          k = 0.4156 0.5083-0.0000 (  5342 PWs)   bands (ev):

    -4.1424  -1.8550  -1.3958   0.8790   2.0071   2.3556   2.5067   4.8843
     8.5877  10.0186  10.2938  10.4798  10.7697  10.8954  11.2132  11.8687

          k = 0.3836 0.4692 0.0000 (  5338 PWs)   bands (ev):

    -4.3901  -2.0860  -1.1877   1.2391   1.9064   2.5800   2.7801   5.0569
     8.7474   9.7962  10.1314  10.1993  10.4804  11.1043  11.5260  11.7305

          k = 0.3517 0.4301 0.0000 (  5336 PWs)   bands (ev):

    -4.6240  -2.3091  -1.0113   1.6200   1.8735   2.8257   3.0754   5.2218
     8.8752   9.5924   9.9014   9.9404  10.2106  11.4249  11.6406  11.8663

          k = 0.3197 0.3910 0.0000 (  5344 PWs)   bands (ev):

    -4.8420  -2.5202  -0.8795   1.9218   2.0208   3.0849   3.3889   5.3754
     8.9632   9.4168   9.6675   9.7034   9.9606  11.5958  11.7922  12.1097

          k = 0.2877 0.3519-0.0000 (  5333 PWs)   bands (ev):

    -5.0425  -2.7163  -0.7987   2.0572   2.4405   3.3504   3.7165   5.5145
     9.0093   9.2741   9.4422   9.4884   9.7303  11.5796  12.1447  12.1916

          k = 0.2558 0.3128 0.0000 (  5327 PWs)   bands (ev):

    -5.2243  -2.8953  -0.7653   2.2757   2.8778   3.6146   4.0534   5.6370
     9.0180   9.1674   9.2276   9.2957   9.5193  11.5542  12.2318  12.5594

          k = 0.2238 0.2737 0.0000 (  5333 PWs)   bands (ev):

    -5.3865  -3.0556  -0.7681   2.5643   3.3305   3.8699   4.3944   5.7413
     8.9982   9.0211   9.0994   9.1254   9.3272  11.4587  11.8836  12.3696

          k = 0.1918 0.2346-0.0000 (  5345 PWs)   bands (ev):

    -5.5283  -3.1963  -0.7939   2.9070   3.7955   4.1082   4.7327   5.8274
     8.8166   8.9599   8.9775   9.0713   9.1533  11.2301  11.2409  12.5543

          k = 0.1599 0.1955 0.0000 (  5363 PWs)   bands (ev):

    -5.6491  -3.3164  -0.8307   3.2871   4.2680   4.3217   5.0595   5.8960
     8.6028   8.8523   8.9111   8.9974   9.0818  10.6582  10.8600  12.7788

          k = 0.1279 0.1564 0.0000 (  5361 PWs)   bands (ev):

    -5.7485  -3.4154  -0.8699   3.6876   4.5035   4.7396   5.3639   5.9485
     8.3638   8.7497   8.8564   8.8598   9.1258  10.1625  10.4054  13.0317

          k = 0.0959 0.1173 0.0000 (  5365 PWs)   bands (ev):

    -5.8261  -3.4927  -0.9055   4.0874   4.6485   5.1952   5.6314   5.9868
     8.0886   8.6699   8.7424   8.7950   9.1923   9.7815   9.9398  13.2946

          k = 0.0639 0.0782-0.0000 (  5385 PWs)   bands (ev):

    -5.8817  -3.5482  -0.9333   4.4535   4.7533   5.6051   5.8445   6.0126
     7.7958   8.6128   8.6496   8.7178   9.2644   9.5267   9.5380  13.5382

          k = 0.0320 0.0391 0.0000 (  5373 PWs)   bands (ev):

    -5.9152  -3.5816  -0.9508   4.7301   4.8165   5.9127   5.9836   6.0274
     7.5514   8.5786   8.5887   8.6213   9.2795   9.3206   9.3862  13.6194

          k = 0.0000 0.0000 0.0000 (  5377 PWs)   bands (ev):

    -5.9263  -3.5927  -0.9568   4.8376   4.8376   6.0323   6.0323   6.0323
     7.4523   8.5672   8.5672   8.5672   9.1974   9.3419   9.3419  13.5664

          k = 0.0263 0.0322 0.0294 (  5374 PWs)   bands (ev):

    -5.9150  -3.5883  -0.9435   4.7461   4.8137   5.8963   6.0126   6.0126
     7.5432   8.5958   8.5958   8.5962   9.2824   9.3185   9.3877  13.6150

          k = 0.0527 0.0644 0.0588 (  5379 PWs)   bands (ev):

    -5.8810  -3.5746  -0.9040   4.5071   4.7453   5.5464   5.9568   5.9568
     7.7688   8.6113   8.6775   8.6775   9.2680   9.5219   9.5538  13.6312

          k = 0.0790 0.0966 0.0882 (  5373 PWs)   bands (ev):

    -5.8244  -3.5512  -0.8406   4.1851   4.6402   5.0781   5.8730   5.8730
     8.0153   8.5650   8.8009   8.8009   9.2587   9.7363   9.9700  13.4782

          k = 0.1053 0.1288 0.1176 (  5367 PWs)   bands (ev):

    -5.7456  -3.5174  -0.7568   3.8293   4.5089   4.5533   5.7708   5.7708
     8.1386   8.4771   8.9507   8.9507   9.4086  10.0204  10.4582  13.3200

          k = 0.1316 0.1610 0.1471 (  5366 PWs)   bands (ev):

    -5.6447  -3.4722  -0.6585   3.4700   4.0043   4.3616   5.6589   5.6589
     8.0880   8.3675   9.1098   9.1098   9.7595  10.3636  10.9755  12.8247

          k = 0.1580 0.1932 0.1765 (  5351 PWs)   bands (ev):

    -5.5223  -3.4145  -0.5542   3.1285   3.4483   4.2069   5.5442   5.5442
     7.9392   8.2482   9.2608   9.2608  10.2326  10.7567  11.5009  12.1423

          k = 0.1843 0.2254 0.2059 (  5344 PWs)   bands (ev):

    -5.3791  -3.3434  -0.4564   2.8237   2.8957   4.0519   5.4316   5.4316
     7.7549   8.1271   9.3873   9.3873  10.7508  11.1920  11.4734  12.0230

          k = 0.2106 0.2576 0.2353 (  5353 PWs)   bands (ev):

    -5.2159  -3.2579  -0.3826   2.3531   2.5756   3.9018   5.3247   5.3247
     7.5637   8.0094   9.4773   9.4773  10.7186  11.4035  11.6634  12.5323

          k = 0.2370 0.2898 0.2647 (  5342 PWs)   bands (ev):

    -5.0341  -3.1574  -0.3537   1.8257   2.4060   3.7606   5.2259   5.2259
     7.3790   7.8989   9.5259   9.5259  10.0858  11.9775  12.1656  13.0123

          k = 0.2633 0.3220 0.2941 (  5349 PWs)   bands (ev):

    -4.8356  -3.0412  -0.3881   1.3181   2.3321   3.6313   5.1367   5.1367
     7.2082   7.7979   9.4598   9.5365   9.5365  12.5857  12.6937  13.4221

          k = 0.2896 0.3542 0.3235 (  5340 PWs)   bands (ev):

    -4.6232  -2.9089  -0.4915   0.8351   2.3567   3.5159   5.0583   5.0583
     7.0553   7.7083   8.8636   9.5187   9.5187  13.2040  13.2425  13.6772

          k = 0.3159 0.3864 0.3529 (  5351 PWs)   bands (ev):

    -4.4015  -2.7604  -0.6540   0.3824   2.4649   3.4161   4.9913   4.9913
     6.9232   7.6312   8.3064   9.4838   9.4838  13.7446  13.8056  13.8226

          k = 0.3423 0.4186 0.3824 (  5350 PWs)   bands (ev):

    -4.1773  -2.5957  -0.8573  -0.0319   2.6298   3.3331   4.9361   4.9361
     6.8135   7.5673   7.7990   9.4423   9.4423  13.7144  14.3737  14.4292

          k = 0.3686 0.4508 0.4118 (  5351 PWs)   bands (ev):

    -3.9623  -2.4152  -1.0838  -0.3955   2.8199   3.2678   4.8931   4.8931
     6.7278   7.3567   7.5171   9.4024   9.4024  13.6598  14.9300  15.0034

          k = 0.3949 0.4830 0.4412 (  5345 PWs)   bands (ev):

    -3.7748  -2.2196  -1.3201  -0.6894   3.0005   3.2207   4.8623   4.8623
     6.6676   7.0016   7.4812   9.3700   9.3700  13.6104  15.4417  15.5061

          k = 0.4213 0.5152 0.4706 (  5351 PWs)   bands (ev):

    -3.6417  -2.0100  -1.5569  -0.8865   3.1334   3.1923   4.8438   4.8438
     6.6364   6.7615   7.4595   9.3491   9.3491  13.5777  15.8390  15.8666

          k = 0.4476 0.5474 0.5000 (  5390 PWs)   bands (ev):

    -3.5927  -1.7882  -1.7882  -0.9568   3.1828   3.1828   4.8376   4.8376
     6.6514   6.6514   7.4523   9.3419   9.3419  13.5664  15.9993  15.9993

          k = 0.4437 0.5857 0.4615 (  5358 PWs)   bands (ev):

    -3.5798  -2.0785  -1.4860  -0.9499   3.1669   3.1698   4.7138   4.8132
     6.6292   6.7644   7.5663   9.3173   9.3934  13.6275  15.7678  15.8494

          k = 0.4399 0.6240 0.4231 (  5356 PWs)   bands (ev):

    -3.5411  -2.3531  -1.1769  -0.9296   3.1177   3.1398   4.4013   4.7399
     6.6987   6.9608   7.8399   9.2538   9.5579  13.7860  15.1763  15.5598

          k = 0.4361 0.6622 0.3846 (  5345 PWs)   bands (ev):

    -3.4768  -2.6092  -0.8978  -0.8680   3.0386   3.1096   3.9966   4.6185
     6.8538   7.2297   8.1551   9.1758   9.8582  13.9608  14.4396  14.9776

          k = 0.4322 0.7005 0.3462 (  5342 PWs)   bands (ev):

    -3.3872  -2.8450  -0.8580  -0.5687   2.9382   3.0979   3.5634   4.4513
     7.0834   7.5602   8.4410   9.1092  10.3039  13.6575  14.0101  14.4031

          k = 0.4284 0.7388 0.3077 (  5345 PWs)   bands (ev):

    -3.2727  -3.0587  -0.8159  -0.2905   2.8264   3.1233   3.1375   4.2429
     7.3755   7.9428   8.6871   9.0734  10.8736  12.8691  13.8417  13.8515

          k = 0.4245 0.7770 0.2692 (  5339 PWs)   bands (ev):

    -3.2494  -3.1339  -0.7800  -0.0461   2.7123   2.7432   3.2026   4.0008
     7.7189   8.3700   8.9113   9.0794  11.5314  12.0935  13.3250  13.5225

          k = 0.4207 0.8153 0.2308 (  5341 PWs)   bands (ev):

    -3.4160  -2.9717  -0.7629   0.1536   2.4011   2.6031   3.3471   3.7340
     8.1041   8.8356   9.1311   9.1315  11.3435  12.2472  12.8256  13.1401

          k = 0.4169 0.8536 0.1923 (  5344 PWs)   bands (ev):

    -3.5580  -2.7872  -0.7807   0.3042   2.1320   2.5039   3.4526   3.5583
     8.5233   9.2286   9.3328   9.3585  10.6324  12.3524  12.7384  13.0023

          k = 0.4130 0.8918 0.1538 (  5342 PWs)   bands (ev):

    -3.6747  -2.5823  -0.8492   0.4084   1.9541   2.4187   3.1663   3.8249
     8.9699   9.3692   9.5971   9.8013  10.0303  11.9120  12.3374  12.8790

          k = 0.4092 0.9301 0.1154 (  5349 PWs)   bands (ev):

    -3.7659  -2.3590  -0.9766   0.4751   1.8771   2.3502   2.8846   4.1213
     9.3525   9.4376   9.5492   9.8470  10.4422  11.5063  11.9476  12.4157

          k = 0.4053 0.9684 0.0769 (  5346 PWs)   bands (ev):

    -3.8312  -2.1210  -1.1581   0.5142   1.8965   2.3000   2.6166   4.4070
     8.8655   9.7633   9.9200  10.0976  11.0165  11.1492  11.5769  11.9368

          k = 0.4015 1.0067 0.0385 (  5351 PWs)   bands (ev):

    -3.8705  -1.8729  -1.3790   0.5342   1.9973   2.2695   2.3719   4.6243
     8.5288  10.0013  10.2875  10.4063  10.9037  11.2359  11.4525  11.6042

          k = 0.3977 1.0449 0.0000 (  5332 PWs)   bands (ev):

    -3.8836  -1.6221  -1.6221   0.5402   2.1611   2.1611   2.2593   4.7075
     8.4062  10.2283  10.2283  10.7815  10.9595  10.9595  11.0778  12.0516

          k = 0.3424 1.0394 0.0000 (  5348 PWs)   bands (ev):

    -3.8763  -1.6276  -1.6276   0.4587   2.1857   2.1857   2.3610   4.7111
     8.4088   9.8493   9.8493  10.6917  10.8668  11.3645  11.3645  12.2785

          k = 0.2871 1.0338 0.0000 (  5345 PWs)   bands (ev):

    -3.8549  -1.6433  -1.6433   0.2590   2.2577   2.2577   2.6211   4.7217
     8.4129   9.2738   9.2738  10.4735  10.4797  12.0181  12.0181  12.7195

          k = 0.2318 1.0283 0.0000 (  5338 PWs)   bands (ev):

    -3.8210  -1.6668  -1.6668   0.0110   2.3721   2.3721   2.9683   4.7382
     8.4047   8.7059   8.7059  10.0722  10.2282  12.7167  12.7167  13.1994

          k = 0.1766 1.0227 0.0000 (  5337 PWs)   bands (ev):

    -3.7771  -1.6947  -1.6947  -0.2416   2.5207   2.5207   3.3568   4.7589
     8.1733   8.1733   8.3558   9.7261   9.9824  13.4331  13.4331  13.6396

          k = 0.1213 1.0172 0.0000 (  5343 PWs)   bands (ev):

    -3.7274  -1.7235  -1.7235  -0.4752   2.6914   2.6914   3.7580   4.7815
     7.6904   7.6904   8.2260   9.4859   9.7640  13.9059  14.1518  14.1518

          k = 0.0660 1.0116 0.0000 (  5355 PWs)   bands (ev):

    -3.6773  -1.7496  -1.7496  -0.6744   2.8676   2.8676   4.1469   4.8032
     7.2733   7.2733   8.0050   9.3692   9.5845  13.8876  14.8487  14.8487

          k = 0.0107 1.0061-0.0000 (  5345 PWs)   bands (ev):

    -3.6336  -1.7704  -1.7704  -0.8272   3.0268   3.0268   4.4915   4.8213
     6.9433   6.9433   7.7471   9.3369   9.4514  13.7402  15.4667  15.4667

          k =-0.0446 1.0006 0.0000 (  5347 PWs)   bands (ev):

    -3.6035  -1.7836  -1.7836  -0.9238   3.1409   3.1409   4.7426   4.8334
     6.7272   6.7272   7.5357   9.3382   9.3696  13.6137  15.8766  15.8766

          k =-0.0998 0.9950 0.0000 (  5390 PWs)   bands (ev):

    -3.5927  -1.7882  -1.7882  -0.9568   3.1828   3.1828   4.8376   4.8376
     6.6514   6.6514   7.4523   9.3419   9.3419  13.5664  15.9993  15.9993

     Writing all to output data dir ./temp_supercell/si.save/
 
     init_run     :      0.13s CPU      0.16s WALL (       1 calls)
     electrons    :      6.60s CPU      6.68s WALL (       1 calls)

     Called by init_run:
     wfcinit      :      0.00s CPU      0.01s WALL (       1 calls)
     potinit      :      0.01s CPU      0.01s WALL (       1 calls)
     hinit0       :      0.11s CPU      0.12s WALL (       1 calls)

     Called by electrons:
     c_bands      :      6.60s CPU      6.67s WALL (       1 calls)
     v_of_rho     :      0.01s CPU      0.01s WALL (       1 calls)

     Called by c_bands:
     init_us_2    :      0.01s CPU      0.01s WALL (       9 calls)
     init_us_2:cp :      0.01s CPU      0.01s WALL (       9 calls)
     cegterg      :      5.49s CPU      5.56s WALL (      39 calls)

     Called by *egterg:
     cdiaghg      :      0.27s CPU      0.28s WALL (     683 calls)
     h_psi        :      4.87s CPU      4.92s WALL (     722 calls)
     g_psi        :      0.03s CPU      0.03s WALL (     674 calls)

     Called by h_psi:
     h_psi:calbec :      0.24s CPU      0.24s WALL (     722 calls)
     vloc_psi     :      4.37s CPU      4.43s WALL (     722 calls)
     add_vuspsi   :      0.23s CPU      0.23s WALL (     722 calls)

     General routines
     calbec       :      0.24s CPU      0.24s WALL (     722 calls)
     fft          :      0.00s CPU      0.01s WALL (       4 calls)
     fftw         :      3.65s CPU      3.69s WALL (   11182 calls)
     davcio       :      0.00s CPU      0.00s WALL (      18 calls)
 
     Parallel routines
 
     PWSCF        :      8.07s CPU      8.94s WALL

 
   This run was terminated on:   7: 4:11   3Jun2022            

=------------------------------------------------------------------------------=
   JOB DONE.
=------------------------------------------------------------------------------=
