MPI startup(): Warning: I_MPI_PMI_LIBRARY will be ignored since the hydra process manager was found
MPI startup(): Warning: I_MPI_PMI_LIBRARY will be ignored since the hydra process manager was found
MPI startup(): Warning: I_MPI_PMI_LIBRARY will be ignored since the hydra process manager was found
MPI startup(): Warning: I_MPI_PMI_LIBRARY will be ignored since the hydra process manager was found

     Program PWSCF v.7.0 starts on  3Jun2022 at  6:59:40 

     This program is part of the open-source Quantum ESPRESSO suite
     for quantum simulation of materials; please cite
         "P. Giannozzi et al., J. Phys.:Condens. Matter 21 395502 (2009);
         "P. Giannozzi et al., J. Phys.:Condens. Matter 29 465901 (2017);
         "P. Giannozzi et al., J. Chem. Phys. 152 154105 (2020);
          URL http://www.quantum-espresso.org", 
     in publications or presentations arising from this work. More details at
     http://www.quantum-espresso.org/quote

     Parallel version (MPI & OpenMP), running on       4 processor cores
     Number of MPI processes:                 4
     Threads/MPI process:                     1

     MPI processes distributed on     1 nodes
     60232 MiB available memory on the printing compute node when the environment starts
 
     Reading input from bands.nonstandard.in

     Current dimensions of program PWSCF are:
     Max number of different atomic species (ntypx) = 10
     Max number of k-points (npk) =  40000
     Max angular momentum in pseudopotentials (lmaxx) =  4

     Atomic positions and unit cell read from directory:
     ./temp_nonstandard/si.save/
     Atomic positions from file used, from input discarded
 
     Message from routine setup:
     using ibrav=0 with symmetry is DISCOURAGED, use correct ibrav instead
 
     K-points division:     npool     =       4
     Subspace diagonalization in iterative solution of the eigenvalue problem:
     a serial algorithm will be used

 
     G-vector sticks info
     --------------------
     sticks:   dense  smooth     PW     G-vecs:    dense   smooth      PW
     Sum        1027    1027    301                21547    21547    3383
 
     Using Slab Decomposition
 


     bravais-lattice index     =            0
     lattice parameter (alat)  =      10.2633  a.u.
     unit-cell volume          =     270.2704 (a.u.)^3
     number of atoms/cell      =            2
     number of atomic types    =            1
     number of electrons       =         8.00
     number of Kohn-Sham states=            8
     kinetic-energy cutoff     =      70.0000  Ry
     charge density cutoff     =     280.0000  Ry
     Exchange-correlation= SLA  PW   NOGX NOGC
                           (   1   4   0   0   0   0   0)

     celldm(1)=  10.263280  celldm(2)=   0.000000  celldm(3)=   0.000000
     celldm(4)=   0.000000  celldm(5)=   0.000000  celldm(6)=   0.000000

     crystal axes: (cart. coord. in units of alat)
               a(1) = (  -0.497502  -0.049917   0.500000 )  
               a(2) = (  -0.049917   0.497502   0.500000 )  
               a(3) = (  -1.044921   0.397669   0.500000 )  

     reciprocal axes: (cart. coord. in units 2 pi/alat)
               b(1) = (  0.199667 -1.990008  2.000000 )  
               b(2) = (  0.895171  1.094838  1.000000 )  
               b(3) = ( -1.094838  0.895171 -1.000000 )  


     PseudoPot. # 1 for Si read from file:
     ~/PP/all/Si.dojo.sr.ONCVv0.4.lda.standard.upf
     MD5 check sum: Not computed, couldn't open file
     Pseudo is Norm-conserving + core correction, Zval =  4.0
     Generated using ONCVPSP code by D. R. Hamann
     Using radial grid of 1510 points,  6 beta functions with: 
                l(1) =   0
                l(2) =   0
                l(3) =   1
                l(4) =   1
                l(5) =   2
                l(6) =   2

     atomic species   valence    mass     pseudopotential
        Si             4.00    28.08550     Si( 1.00)

      8 Sym. Ops., with inversion, found ( 4 have fractional translation)



   Cartesian axes

     site n.     atom                  positions (alat units)
         1           Si  tau(   1) = (   0.0000000   0.0000000   0.0000000  )
         2           Si  tau(   2) = (  -0.2737094   0.2237927   0.2500000  )

     number of k points=    87
                       cart. coord. in units 2pi/alat
        k(    1) = (   0.0000000   0.0000000   0.0000000), wk =   0.0229885
        k(    2) = (  -0.0052544   0.0523686   0.0000000), wk =   0.0229885
        k(    3) = (  -0.0105088   0.1047373   0.0000000), wk =   0.0229885
        k(    4) = (  -0.0157632   0.1571059   0.0000000), wk =   0.0229885
        k(    5) = (  -0.0210176   0.2094746   0.0000000), wk =   0.0229885
        k(    6) = (  -0.0262720   0.2618432   0.0000000), wk =   0.0229885
        k(    7) = (  -0.0315263   0.3142118   0.0000000), wk =   0.0229885
        k(    8) = (  -0.0367807   0.3665805   0.0000000), wk =   0.0229885
        k(    9) = (  -0.0420351   0.4189491   0.0000000), wk =   0.0229885
        k(   10) = (  -0.0472895   0.4713178   0.0000000), wk =   0.0229885
        k(   11) = (  -0.0525439   0.5236864   0.0000000), wk =   0.0229885
        k(   12) = (  -0.0577983   0.5760550   0.0000000), wk =   0.0229885
        k(   13) = (  -0.0630527   0.6284237   0.0000000), wk =   0.0229885
        k(   14) = (  -0.0683071   0.6807923   0.0000000), wk =   0.0229885
        k(   15) = (  -0.0735615   0.7331610   0.0000000), wk =   0.0229885
        k(   16) = (  -0.0788158   0.7855296   0.0000000), wk =   0.0229885
        k(   17) = (  -0.0840702   0.8378982   0.0000000), wk =   0.0229885
        k(   18) = (  -0.0893246   0.8902669   0.0000000), wk =   0.0229885
        k(   19) = (  -0.0945790   0.9426355   0.0000000), wk =   0.0229885
        k(   20) = (  -0.0998334   0.9950042   0.0000000), wk =   0.0229885
        k(   21) = (  -0.0583749   0.9991639   0.0416667), wk =   0.0229885
        k(   22) = (  -0.0169164   1.0033236   0.0833334), wk =   0.0229885
        k(   23) = (   0.0245421   1.0074833   0.1250000), wk =   0.0229885
        k(   24) = (   0.0660006   1.0116431   0.1666667), wk =   0.0229885
        k(   25) = (   0.1074591   1.0158028   0.2083334), wk =   0.0229885
        k(   26) = (   0.1489176   1.0199625   0.2500000), wk =   0.0229885
        k(   27) = (   0.6713781   0.8211282   0.0000000), wk =   0.0229885
        k(   28) = (   0.6394077   0.7820268   0.0000000), wk =   0.0229885
        k(   29) = (   0.6074373   0.7429255   0.0000000), wk =   0.0229885
        k(   30) = (   0.5754669   0.7038242   0.0000000), wk =   0.0229885
        k(   31) = (   0.5434965   0.6647228   0.0000000), wk =   0.0229885
        k(   32) = (   0.5115262   0.6256215   0.0000000), wk =   0.0229885
        k(   33) = (   0.4795558   0.5865201   0.0000000), wk =   0.0229885
        k(   34) = (   0.4475854   0.5474188   0.0000000), wk =   0.0229885
        k(   35) = (   0.4156150   0.5083175   0.0000000), wk =   0.0229885
        k(   36) = (   0.3836446   0.4692161   0.0000000), wk =   0.0229885
        k(   37) = (   0.3516742   0.4301148   0.0000000), wk =   0.0229885
        k(   38) = (   0.3197038   0.3910134   0.0000000), wk =   0.0229885
        k(   39) = (   0.2877335   0.3519121   0.0000000), wk =   0.0229885
        k(   40) = (   0.2557631   0.3128107   0.0000000), wk =   0.0229885
        k(   41) = (   0.2237927   0.2737094   0.0000000), wk =   0.0229885
        k(   42) = (   0.1918223   0.2346081   0.0000000), wk =   0.0229885
        k(   43) = (   0.1598519   0.1955067   0.0000000), wk =   0.0229885
        k(   44) = (   0.1278815   0.1564054   0.0000000), wk =   0.0229885
        k(   45) = (   0.0959112   0.1173040   0.0000000), wk =   0.0229885
        k(   46) = (   0.0639408   0.0782027   0.0000000), wk =   0.0229885
        k(   47) = (   0.0319704   0.0391013   0.0000000), wk =   0.0229885
        k(   48) = (   0.0000000   0.0000000   0.0000000), wk =   0.0229885
        k(   49) = (   0.0263285   0.0322011   0.0294118), wk =   0.0229885
        k(   50) = (   0.0526571   0.0644022   0.0588235), wk =   0.0229885
        k(   51) = (   0.0789857   0.0966033   0.0882353), wk =   0.0229885
        k(   52) = (   0.1053142   0.1288044   0.1176471), wk =   0.0229885
        k(   53) = (   0.1316428   0.1610055   0.1470588), wk =   0.0229885
        k(   54) = (   0.1579713   0.1932066   0.1764706), wk =   0.0229885
        k(   55) = (   0.1842999   0.2254077   0.2058824), wk =   0.0229885
        k(   56) = (   0.2106284   0.2576088   0.2352941), wk =   0.0229885
        k(   57) = (   0.2369570   0.2898099   0.2647059), wk =   0.0229885
        k(   58) = (   0.2632855   0.3220111   0.2941177), wk =   0.0229885
        k(   59) = (   0.2896141   0.3542122   0.3235294), wk =   0.0229885
        k(   60) = (   0.3159426   0.3864133   0.3529412), wk =   0.0229885
        k(   61) = (   0.3422712   0.4186144   0.3823529), wk =   0.0229885
        k(   62) = (   0.3685997   0.4508155   0.4117647), wk =   0.0229885
        k(   63) = (   0.3949283   0.4830166   0.4411765), wk =   0.0229885
        k(   64) = (   0.4212568   0.5152177   0.4705882), wk =   0.0229885
        k(   65) = (   0.4475854   0.5474188   0.5000000), wk =   0.0229885
        k(   66) = (   0.4437456   0.5856882   0.4615385), wk =   0.0229885
        k(   67) = (   0.4399059   0.6239576   0.4230769), wk =   0.0229885
        k(   68) = (   0.4360661   0.6622270   0.3846154), wk =   0.0229885
        k(   69) = (   0.4322264   0.7004964   0.3461538), wk =   0.0229885
        k(   70) = (   0.4283866   0.7387658   0.3076923), wk =   0.0229885
        k(   71) = (   0.4245469   0.7770351   0.2692308), wk =   0.0229885
        k(   72) = (   0.4207072   0.8153045   0.2307692), wk =   0.0229885
        k(   73) = (   0.4168674   0.8535739   0.1923077), wk =   0.0229885
        k(   74) = (   0.4130277   0.8918433   0.1538462), wk =   0.0229885
        k(   75) = (   0.4091879   0.9301127   0.1153846), wk =   0.0229885
        k(   76) = (   0.4053482   0.9683821   0.0769231), wk =   0.0229885
        k(   77) = (   0.4015084   1.0066515   0.0384616), wk =   0.0229885
        k(   78) = (   0.3976687   1.0449209   0.0000000), wk =   0.0229885
        k(   79) = (   0.3423907   1.0393746   0.0000000), wk =   0.0229885
        k(   80) = (   0.2871127   1.0338283   0.0000000), wk =   0.0229885
        k(   81) = (   0.2318346   1.0282820   0.0000000), wk =   0.0229885
        k(   82) = (   0.1765566   1.0227357   0.0000000), wk =   0.0229885
        k(   83) = (   0.1212786   1.0171894   0.0000000), wk =   0.0229885
        k(   84) = (   0.0660006   1.0116431   0.0000000), wk =   0.0229885
        k(   85) = (   0.0107226   1.0060968   0.0000000), wk =   0.0229885
        k(   86) = (  -0.0445554   1.0005505   0.0000000), wk =   0.0229885
        k(   87) = (  -0.0998334   0.9950042   0.0000000), wk =   0.0229885

     Dense  grid:    21547 G-vectors     FFT dimensions: (  40,  40,  72)

     Estimated max dynamical RAM per process >      14.86 MB

     Estimated total dynamical RAM >      59.44 MB

     The potential is recalculated from file :
     ./temp_nonstandard/si.save/charge-density

     Starting wfcs are    8 randomized atomic wfcs

     Band Structure Calculation
     Davidson diagonalization with overlap

     ethr =  1.00E-13,  avg # of iterations = 49.9

     total cpu time spent up to now is       17.2 secs

     End of band structure calculation

          k = 0.0000 0.0000 0.0000 (  2685 PWs)   bands (ev):

    -5.9263   6.0323   6.0323   6.0323   8.5672   8.5672   8.5672   9.1974

          k =-0.0053 0.0524 0.0000 (  2709 PWs)   bands (ev):

    -5.9142   5.9469   5.9802   5.9802   8.5355   8.6339   8.6339   9.2808

          k =-0.0105 0.1047 0.0000 (  2709 PWs)   bands (ev):

    -5.8779   5.7148   5.8388   5.8388   8.4447   8.8194   8.8194   9.5034

          k =-0.0158 0.1571 0.0000 (  2701 PWs)   bands (ev):

    -5.8174   5.3836   5.6386   5.6386   8.3062   9.0926   9.0926   9.8031

          k =-0.0210 0.2095 0.0000 (  2701 PWs)   bands (ev):

    -5.7328   4.9929   5.4073   5.4073   8.1341   9.4256   9.4256  10.1043

          k =-0.0263 0.2618 0.0000 (  2693 PWs)   bands (ev):

    -5.6243   4.5677   5.1637   5.1637   7.9421   9.7992   9.7992  10.3029

          k =-0.0315 0.3142 0.0000 (  2681 PWs)   bands (ev):

    -5.4921   4.1223   4.9195   4.9195   7.7418  10.2010  10.2010  10.2813

          k =-0.0368 0.3666 0.0000 (  2678 PWs)   bands (ev):

    -5.3363   3.6649   4.6818   4.6818   7.5420  10.0380  10.6232  10.6232

          k =-0.0420 0.4189 0.0000 (  2686 PWs)   bands (ev):

    -5.1572   3.2002   4.4555   4.4555   7.3497   9.6784  11.0607  11.0607

          k =-0.0473 0.4713 0.0000 (  2678 PWs)   bands (ev):

    -4.9551   2.7314   4.2434   4.2434   7.1701   9.2812  11.5101  11.5101

          k =-0.0525 0.5237 0.0000 (  2682 PWs)   bands (ev):

    -4.7304   2.2606   4.0478   4.0478   7.0071   8.8844  11.9690  11.9690

          k =-0.0578 0.5761 0.0000 (  2662 PWs)   bands (ev):

    -4.4836   1.7897   3.8701   3.8701   6.8638   8.5058  12.4357  12.4357

          k =-0.0631 0.6284 0.0000 (  2662 PWs)   bands (ev):

    -4.2151   1.3201   3.7114   3.7114   6.7426   8.1543  12.9092  12.9092

          k =-0.0683 0.6808 0.0000 (  2670 PWs)   bands (ev):

    -3.9255   0.8536   3.5727   3.5727   6.6455   7.8346  13.3886  13.3886

          k =-0.0736 0.7332 0.0000 (  2666 PWs)   bands (ev):

    -3.6154   0.3918   3.4544   3.4544   6.5742   7.5493  13.8732  13.8732

          k =-0.0788 0.7855 0.0000 (  2666 PWs)   bands (ev):

    -3.2857  -0.0637   3.3570   3.3570   6.5301   7.2993  14.3614  14.3614

          k =-0.0841 0.8379 0.0000 (  2666 PWs)   bands (ev):

    -2.9371  -0.5110   3.2810   3.2810   6.5146   7.0849  14.8503  14.8503

          k =-0.0893 0.8903 0.0000 (  2674 PWs)   bands (ev):

    -2.5705  -0.9487   3.2265   3.2265   6.5289   6.9059  15.3308  15.3308

          k =-0.0946 0.9426 0.0000 (  2690 PWs)   bands (ev):

    -2.1872  -1.3749   3.1937   3.1937   6.5742   6.7617  15.7689  15.7689

          k =-0.0998 0.9950 0.0000 (  2698 PWs)   bands (ev):

    -1.7882  -1.7882   3.1828   3.1828   6.6514   6.6514  15.9993  15.9993

          k =-0.0584 0.9992 0.0417 (  2678 PWs)   bands (ev):

    -1.7944  -1.7718   3.0791   3.1950   6.6656   6.8052  15.8467  15.9092

          k =-0.0169 1.0033 0.0833 (  2674 PWs)   bands (ev):

    -1.8150  -1.7227   2.8179   3.2315   6.7080   7.2182  15.4711  15.6682

          k = 0.0245 1.0075 0.1250 (  2662 PWs)   bands (ev):

    -1.8560  -1.6409   2.4912   3.2919   6.7783   7.8040  14.9924  15.3321

          k = 0.0660 1.0116 0.1667 (  2654 PWs)   bands (ev):

    -1.9267  -1.5265   2.1703   3.3758   6.8759   8.4994  14.4763  14.9460

          k = 0.1075 1.0158 0.2083 (  2664 PWs)   bands (ev):

    -2.0377  -1.3796   1.9004   3.4822   6.9999   9.2676  13.9530  14.5138

          k = 0.1489 1.0200 0.2500 (  2654 PWs)   bands (ev):

    -2.1974  -1.2004   1.7086   3.6100   7.1491  10.0858  13.4371  13.9463

          k = 0.6714 0.8211 0.0000 (  2654 PWs)   bands (ev):

    -2.1974  -1.2004   1.7086   3.6100   7.1491  10.0858  13.4371  13.9463

          k = 0.6394 0.7820 0.0000 (  2662 PWs)   bands (ev):

    -2.3748  -1.0211   1.6160   3.7354   7.2957  10.8113  13.0069  13.5065

          k = 0.6074 0.7429 0.0000 (  2662 PWs)   bands (ev):

    -2.5862  -0.8184   1.5905   3.8743   7.4580  11.5317  12.5910  13.1152

          k = 0.5755 0.7038 0.0000 (  2658 PWs)   bands (ev):

    -2.8244  -0.5924   1.6274   4.0252   7.6340  12.0964  12.1915  12.9175

          k = 0.5435 0.6647 0.0000 (  2672 PWs)   bands (ev):

    -3.0810  -0.3432   1.7199   4.1862   7.8210  11.8099  12.0478  12.8097

          k = 0.5115 0.6256 0.0000 (  2672 PWs)   bands (ev):

    -3.3477  -0.0712   1.8605   4.3554   8.0156  11.4471  11.7363  12.5277

          k = 0.4796 0.5865 0.0000 (  2666 PWs)   bands (ev):

    -3.6172   0.2234   2.0422   4.5301   8.2127  11.1042  11.4024  12.2733

          k = 0.4476 0.5474 0.0000 (  2676 PWs)   bands (ev):

    -3.8836   0.5402   2.2593   4.7075   8.4062  10.7815  11.0778  12.0516

          k = 0.4156 0.5083 0.0000 (  2668 PWs)   bands (ev):

    -4.1424   0.8790   2.5067   4.8843   8.5877  10.4798  10.7697  11.8687

          k = 0.3836 0.4692 0.0000 (  2670 PWs)   bands (ev):

    -4.3901   1.2391   2.7801   5.0569   8.7474  10.1993  10.4804  11.7305

          k = 0.3517 0.4301 0.0000 (  2666 PWs)   bands (ev):

    -4.6240   1.6200   3.0754   5.2218   8.8752   9.9404  10.2106  11.6406

          k = 0.3197 0.3910 0.0000 (  2670 PWs)   bands (ev):

    -4.8420   2.0208   3.3889   5.3754   8.9632   9.7034   9.9606  11.5958

          k = 0.2877 0.3519 0.0000 (  2663 PWs)   bands (ev):

    -5.0425   2.4405   3.7165   5.5145   9.0093   9.4884   9.7303  11.5796

          k = 0.2558 0.3128 0.0000 (  2663 PWs)   bands (ev):

    -5.2243   2.8778   4.0534   5.6370   9.0180   9.2957   9.5193  11.5542

          k = 0.2238 0.2737 0.0000 (  2673 PWs)   bands (ev):

    -5.3865   3.3305   4.3944   5.7413   8.9982   9.1254   9.3272  11.4587

          k = 0.1918 0.2346 0.0000 (  2681 PWs)   bands (ev):

    -5.5283   3.7955   4.7327   5.8274   8.9599   8.9775   9.1533  11.2301

          k = 0.1599 0.1955 0.0000 (  2691 PWs)   bands (ev):

    -5.6491   4.2680   5.0595   5.8960   8.8523   8.9111   8.9974  10.8600

          k = 0.1279 0.1564 0.0000 (  2693 PWs)   bands (ev):

    -5.7485   4.7396   5.3639   5.9485   8.7497   8.8564   8.8598  10.4054

          k = 0.0959 0.1173 0.0000 (  2697 PWs)   bands (ev):

    -5.8261   5.1952   5.6314   5.9868   8.6699   8.7424   8.7950   9.9398

          k = 0.0639 0.0782 0.0000 (  2705 PWs)   bands (ev):

    -5.8817   5.6051   5.8445   6.0126   8.6128   8.6496   8.7178   9.5380

          k = 0.0320 0.0391 0.0000 (  2705 PWs)   bands (ev):

    -5.9152   5.9127   5.9836   6.0274   8.5786   8.5887   8.6213   9.2795

          k = 0.0000 0.0000 0.0000 (  2685 PWs)   bands (ev):

    -5.9263   6.0323   6.0323   6.0323   8.5672   8.5672   8.5672   9.1974

          k = 0.0263 0.0322 0.0294 (  2709 PWs)   bands (ev):

    -5.9150   5.8963   6.0126   6.0126   8.5958   8.5958   8.5962   9.2824

          k = 0.0527 0.0644 0.0588 (  2709 PWs)   bands (ev):

    -5.8810   5.5464   5.9568   5.9568   8.6113   8.6775   8.6775   9.5538

          k = 0.0790 0.0966 0.0882 (  2697 PWs)   bands (ev):

    -5.8244   5.0781   5.8730   5.8730   8.5650   8.8009   8.8009   9.9700

          k = 0.1053 0.1288 0.1176 (  2698 PWs)   bands (ev):

    -5.7456   4.5533   5.7708   5.7708   8.4771   8.9507   8.9507  10.4582

          k = 0.1316 0.1610 0.1471 (  2698 PWs)   bands (ev):

    -5.6447   4.0043   5.6589   5.6589   8.3675   9.1098   9.1098  10.9755

          k = 0.1580 0.1932 0.1765 (  2683 PWs)   bands (ev):

    -5.5223   3.4483   5.5442   5.5442   8.2482   9.2608   9.2608  11.5009

          k = 0.1843 0.2254 0.2059 (  2677 PWs)   bands (ev):

    -5.3791   2.8957   5.4316   5.4316   8.1271   9.3873   9.3873  12.0230

          k = 0.2106 0.2576 0.2353 (  2683 PWs)   bands (ev):

    -5.2159   2.3531   5.3247   5.3247   8.0094   9.4773   9.4773  12.5323

          k = 0.2370 0.2898 0.2647 (  2668 PWs)   bands (ev):

    -5.0341   1.8257   5.2259   5.2259   7.8989   9.5259   9.5259  13.0123

          k = 0.2633 0.3220 0.2941 (  2674 PWs)   bands (ev):

    -4.8356   1.3181   5.1367   5.1367   7.7979   9.5365   9.5365  13.4221

          k = 0.2896 0.3542 0.3235 (  2668 PWs)   bands (ev):

    -4.6232   0.8351   5.0583   5.0583   7.7083   9.5187   9.5187  13.6772

          k = 0.3159 0.3864 0.3529 (  2680 PWs)   bands (ev):

    -4.4015   0.3824   4.9913   4.9913   7.6312   9.4838   9.4838  13.7446

          k = 0.3423 0.4186 0.3824 (  2674 PWs)   bands (ev):

    -4.1773  -0.0319   4.9361   4.9361   7.5673   9.4423   9.4423  13.7144

          k = 0.3686 0.4508 0.4118 (  2671 PWs)   bands (ev):

    -3.9623  -0.3955   4.8931   4.8931   7.5171   9.4024   9.4024  13.6598

          k = 0.3949 0.4830 0.4412 (  2671 PWs)   bands (ev):

    -3.7748  -0.6894   4.8623   4.8623   7.4812   9.3700   9.3700  13.6104

          k = 0.4213 0.5152 0.4706 (  2665 PWs)   bands (ev):

    -3.6417  -0.8865   4.8438   4.8438   7.4595   9.3491   9.3491  13.5777

          k = 0.4476 0.5474 0.5000 (  2692 PWs)   bands (ev):

    -3.5927  -0.9568   4.8376   4.8376   7.4523   9.3419   9.3419  13.5664

          k = 0.4437 0.5857 0.4615 (  2668 PWs)   bands (ev):

    -3.5798  -0.9499   4.7138   4.8132   7.5663   9.3173   9.3934  13.6275

          k = 0.4399 0.6240 0.4231 (  2678 PWs)   bands (ev):

    -3.5411  -0.9296   4.4013   4.7399   7.8399   9.2538   9.5579  13.7860

          k = 0.4361 0.6622 0.3846 (  2666 PWs)   bands (ev):

    -3.4768  -0.8978   3.9966   4.6185   8.1551   9.1758   9.8582  13.9608

          k = 0.4322 0.7005 0.3462 (  2668 PWs)   bands (ev):

    -3.3872  -0.8580   3.5634   4.4513   8.4410   9.1092  10.3039  14.0101

          k = 0.4284 0.7388 0.3077 (  2670 PWs)   bands (ev):

    -3.2727  -0.8159   3.1375   4.2429   8.6871   9.0734  10.8736  13.8417

          k = 0.4245 0.7770 0.2692 (  2666 PWs)   bands (ev):

    -3.1339  -0.7800   2.7432   4.0008   8.9113   9.0794  11.5314  13.3250

          k = 0.4207 0.8153 0.2308 (  2668 PWs)   bands (ev):

    -2.9717  -0.7629   2.4011   3.7340   9.1311   9.1315  12.2472  12.8256

          k = 0.4169 0.8536 0.1923 (  2668 PWs)   bands (ev):

    -2.7872  -0.7807   2.1320   3.4526   9.2286   9.3585  12.3524  12.7384

          k = 0.4130 0.8918 0.1538 (  2670 PWs)   bands (ev):

    -2.5823  -0.8492   1.9541   3.1663   9.3692   9.5971  11.9120  12.3374

          k = 0.4092 0.9301 0.1154 (  2670 PWs)   bands (ev):

    -2.3590  -0.9766   1.8771   2.8846   9.5492   9.8470  11.5063  11.9476

          k = 0.4053 0.9684 0.0769 (  2670 PWs)   bands (ev):

    -2.1210  -1.1581   1.8965   2.6166   9.7633  10.0976  11.1492  11.5769

          k = 0.4015 1.0067 0.0385 (  2674 PWs)   bands (ev):

    -1.8729  -1.3790   1.9973   2.3719  10.0013  10.2875  10.9037  11.2359

          k = 0.3977 1.0449 0.0000 (  2656 PWs)   bands (ev):

    -1.6221  -1.6221   2.1611   2.1611  10.2283  10.2283  10.9595  10.9595

          k = 0.3424 1.0394 0.0000 (  2676 PWs)   bands (ev):

    -1.6276  -1.6276   2.1857   2.1857   9.8493   9.8493  11.3645  11.3645

          k = 0.2871 1.0338 0.0000 (  2668 PWs)   bands (ev):

    -1.6433  -1.6433   2.2577   2.2577   9.2738   9.2738  12.0181  12.0181

          k = 0.2318 1.0283 0.0000 (  2666 PWs)   bands (ev):

    -1.6668  -1.6668   2.3721   2.3721   8.7059   8.7059  12.7167  12.7167

          k = 0.1766 1.0227 0.0000 (  2668 PWs)   bands (ev):

    -1.6947  -1.6947   2.5207   2.5207   8.1733   8.1733  13.4331  13.4331

          k = 0.1213 1.0172 0.0000 (  2674 PWs)   bands (ev):

    -1.7235  -1.7235   2.6914   2.6914   7.6904   7.6904  14.1518  14.1518

          k = 0.0660 1.0116 0.0000 (  2680 PWs)   bands (ev):

    -1.7496  -1.7496   2.8676   2.8676   7.2733   7.2733  14.8487  14.8487

          k = 0.0107 1.0061 0.0000 (  2672 PWs)   bands (ev):

    -1.7704  -1.7704   3.0268   3.0268   6.9433   6.9433  15.4667  15.4667

          k =-0.0446 1.0006 0.0000 (  2682 PWs)   bands (ev):

    -1.7836  -1.7836   3.1409   3.1409   6.7272   6.7272  15.8766  15.8766

          k =-0.0998 0.9950 0.0000 (  2698 PWs)   bands (ev):

    -1.7882  -1.7882   3.1828   3.1828   6.6514   6.6514  15.9993  15.9993

     Writing all to output data dir ./temp_nonstandard/si.save/
 
     init_run     :      0.23s CPU      0.24s WALL (       1 calls)
     electrons    :     16.28s CPU     16.34s WALL (       1 calls)

     Called by init_run:
     wfcinit      :      0.00s CPU      0.00s WALL (       1 calls)
     potinit      :      0.05s CPU      0.05s WALL (       1 calls)
     hinit0       :      0.15s CPU      0.17s WALL (       1 calls)

     Called by electrons:
     c_bands      :     16.28s CPU     16.34s WALL (       1 calls)
     v_of_rho     :      0.01s CPU      0.01s WALL (       1 calls)

     Called by c_bands:
     init_us_2    :      0.02s CPU      0.02s WALL (      22 calls)
     init_us_2:cp :      0.02s CPU      0.02s WALL (      22 calls)
     cegterg      :     13.22s CPU     13.27s WALL (      59 calls)

     Called by *egterg:
     cdiaghg      :      0.09s CPU      0.09s WALL (     961 calls)
     h_psi        :     12.76s CPU     12.80s WALL (    1020 calls)
     g_psi        :      0.13s CPU      0.13s WALL (     939 calls)

     Called by h_psi:
     h_psi:calbec :      0.22s CPU      0.22s WALL (    1020 calls)
     vloc_psi     :     12.31s CPU     12.35s WALL (    1020 calls)
     add_vuspsi   :      0.20s CPU      0.20s WALL (    1020 calls)

     General routines
     calbec       :      0.21s CPU      0.21s WALL (    1020 calls)
     fft          :      0.00s CPU      0.01s WALL (       4 calls)
     fftw         :     10.95s CPU     10.99s WALL (   11976 calls)
     davcio       :      0.01s CPU      0.01s WALL (      44 calls)
 
     Parallel routines
 
     PWSCF        :     17.23s CPU     17.36s WALL

 
   This run was terminated on:   6:59:58   3Jun2022            

=------------------------------------------------------------------------------=
   JOB DONE.
=------------------------------------------------------------------------------=
