
     Program PWSCF v.7.0 starts on  3Jun2022 at  7: 2:19 

     This program is part of the open-source Quantum ESPRESSO suite
     for quantum simulation of materials; please cite
         "P. Giannozzi et al., J. Phys.:Condens. Matter 21 395502 (2009);
         "P. Giannozzi et al., J. Phys.:Condens. Matter 29 465901 (2017);
         "P. Giannozzi et al., J. Chem. Phys. 152 154105 (2020);
          URL http://www.quantum-espresso.org", 
     in publications or presentations arising from this work. More details at
     http://www.quantum-espresso.org/quote

     Parallel version (MPI & OpenMP), running on      40 processor cores
     Number of MPI processes:                40
     Threads/MPI process:                     1

     MPI processes distributed on     1 nodes
     249705 MiB available memory on the printing compute node when the environment starts
 
     Reading input from scf.supercell.in

     Current dimensions of program PWSCF are:
     Max number of different atomic species (ntypx) = 10
     Max number of k-points (npk) =  40000
     Max angular momentum in pseudopotentials (lmaxx) =  4
     Found identity + (  0.0000  0.0000  0.5000) symmetry
     This is a supercell, fractional translations are disabled
 
     K-points division:     npool     =      10
     R & G space division:  proc/nbgrp/npool/nimage =       4
     Subspace diagonalization in iterative solution of the eigenvalue problem:
     a serial algorithm will be used

 
     Parallelization info
     --------------------
     sticks:   dense  smooth     PW     G-vecs:    dense   smooth      PW
     Min         256     256     82                10746    10746    1984
     Max         257     257     85                10750    10750    1986
     Sum        1027    1027    337                42993    42993    7939
 
     Using Slab Decomposition
 


     bravais-lattice index     =            0
     lattice parameter (alat)  =      10.2633  a.u.
     unit-cell volume          =     540.5409 (a.u.)^3
     number of atoms/cell      =            4
     number of atomic types    =            1
     number of electrons       =        16.00
     number of Kohn-Sham states=            8
     kinetic-energy cutoff     =      70.0000  Ry
     charge density cutoff     =     280.0000  Ry
     scf convergence threshold =      1.0E-15
     mixing beta               =       0.7000
     number of iterations used =            8  plain     mixing
     Exchange-correlation= SLA  PW   NOGX NOGC
                           (   1   4   0   0   0   0   0)

     celldm(1)=  10.263280  celldm(2)=   0.000000  celldm(3)=   0.000000
     celldm(4)=   0.000000  celldm(5)=   0.000000  celldm(6)=   0.000000

     crystal axes: (cart. coord. in units of alat)
               a(1) = (  -0.497502  -0.049917   0.500000 )  
               a(2) = (  -0.049917   0.497502   0.500000 )  
               a(3) = (  -2.089842   0.795337   1.000000 )  

     reciprocal axes: (cart. coord. in units 2 pi/alat)
               b(1) = (  0.199667 -1.990008  2.000000 )  
               b(2) = (  0.895171  1.094838  1.000000 )  
               b(3) = ( -0.547419  0.447585 -0.500000 )  


     PseudoPot. # 1 for Si read from file:
     ~/PP/all/Si.dojo.sr.ONCVv0.4.lda.standard.upf
     MD5 check sum: Not computed, couldn't open file
     Pseudo is Norm-conserving + core correction, Zval =  4.0
     Generated using ONCVPSP code by D. R. Hamann
     Using radial grid of 1510 points,  6 beta functions with: 
                l(1) =   0
                l(2) =   0
                l(3) =   1
                l(4) =   1
                l(5) =   2
                l(6) =   2

     atomic species   valence    mass     pseudopotential
        Si             4.00    28.08550     Si( 1.00)

     No symmetry found



   Cartesian axes

     site n.     atom                  positions (alat units)
         1           Si  tau(   1) = (   0.0000000   0.0000000   0.0000000  )
         2           Si  tau(   2) = (  -0.2737094   0.2237927   0.2500000  )
         3           Si  tau(   3) = (  -1.0449209   0.3976687   0.5000000  )
         4           Si  tau(   4) = (  -1.3186303   0.6214614   0.7500000  )

     number of k points=  1028

     Number of k-points >= 100: set verbosity='high' to print them.

     Dense  grid:    42993 G-vectors     FFT dimensions: (  40,  40, 135)

     Estimated max dynamical RAM per process >      28.65 MB

     Estimated total dynamical RAM >       1.03 GB

     Initial potential from superposition of free atoms

     starting charge      15.9978, renormalised to      16.0000
     Starting wfcs are   16 randomized atomic wfcs

     total cpu time spent up to now is        2.1 secs

     Self-consistent Calculation

     iteration #  1     ecut=    70.00 Ry     beta= 0.70
     Davidson diagonalization with overlap
     ethr =  1.00E-02,  avg # of iterations =  2.0

     Threshold (ethr) on eigenvalues was too large:
     Diagonalizing with lowered threshold

     Davidson diagonalization with overlap
     ethr =  5.90E-04,  avg # of iterations =  2.0

     total cpu time spent up to now is        9.7 secs

     total energy              =     -34.09505357 Ry
     estimated scf accuracy    <       0.11181101 Ry

     iteration #  2     ecut=    70.00 Ry     beta= 0.70
     Davidson diagonalization with overlap
     ethr =  6.99E-04,  avg # of iterations =  1.0

     total cpu time spent up to now is       12.8 secs

     total energy              =     -34.09931205 Ry
     estimated scf accuracy    <       0.00495742 Ry

     iteration #  3     ecut=    70.00 Ry     beta= 0.70
     Davidson diagonalization with overlap
     ethr =  3.10E-05,  avg # of iterations =  3.2

     total cpu time spent up to now is       17.2 secs

     total energy              =     -34.10095083 Ry
     estimated scf accuracy    <       0.00018105 Ry

     iteration #  4     ecut=    70.00 Ry     beta= 0.70
     Davidson diagonalization with overlap
     ethr =  1.13E-06,  avg # of iterations =  4.9

     total cpu time spent up to now is       22.6 secs

     total energy              =     -34.10109808 Ry
     estimated scf accuracy    <       0.00000493 Ry

     iteration #  5     ecut=    70.00 Ry     beta= 0.70
     Davidson diagonalization with overlap
     ethr =  3.08E-08,  avg # of iterations =  4.9

     total cpu time spent up to now is       28.1 secs

     total energy              =     -34.10110324 Ry
     estimated scf accuracy    <       0.00000030 Ry

     iteration #  6     ecut=    70.00 Ry     beta= 0.70
     Davidson diagonalization with overlap
     ethr =  1.89E-09,  avg # of iterations =  3.4

     total cpu time spent up to now is       32.9 secs

     total energy              =     -34.10110336 Ry
     estimated scf accuracy    <       0.00000001 Ry

     iteration #  7     ecut=    70.00 Ry     beta= 0.70
     Davidson diagonalization with overlap
     ethr =  7.78E-11,  avg # of iterations =  4.5

     total cpu time spent up to now is       38.1 secs

     total energy              =     -34.10110336 Ry
     estimated scf accuracy    <       0.00000001 Ry

     iteration #  8     ecut=    70.00 Ry     beta= 0.70
     Davidson diagonalization with overlap
     ethr =  7.78E-11,  avg # of iterations =  2.0

     total cpu time spent up to now is       41.9 secs

     total energy              =     -34.10110336 Ry
     estimated scf accuracy    <          2.5E-11 Ry

     iteration #  9     ecut=    70.00 Ry     beta= 0.70
     Davidson diagonalization with overlap
     ethr =  1.53E-13,  avg # of iterations =  7.9

     total cpu time spent up to now is       49.8 secs

     total energy              =     -34.10110337 Ry
     estimated scf accuracy    <          6.5E-11 Ry

     iteration # 10     ecut=    70.00 Ry     beta= 0.70
     Davidson diagonalization with overlap
     ethr =  1.53E-13,  avg # of iterations =  2.1

     total cpu time spent up to now is       53.7 secs

     total energy              =     -34.10110337 Ry
     estimated scf accuracy    <          3.5E-12 Ry

     iteration # 11     ecut=    70.00 Ry     beta= 0.70
     Davidson diagonalization with overlap
     ethr =  1.00E-13,  avg # of iterations =  1.0

     total cpu time spent up to now is       56.7 secs

     total energy              =     -34.10110337 Ry
     estimated scf accuracy    <          7.7E-14 Ry

     iteration # 12     ecut=    70.00 Ry     beta= 0.70
     Davidson diagonalization with overlap
     ethr =  1.00E-13,  avg # of iterations =  1.0

     total cpu time spent up to now is       59.8 secs

     total energy              =     -34.10110337 Ry
     estimated scf accuracy    <          3.9E-14 Ry

     iteration # 13     ecut=    70.00 Ry     beta= 0.70
     Davidson diagonalization with overlap
     ethr =  1.00E-13,  avg # of iterations =  1.0

     total cpu time spent up to now is       62.8 secs

     total energy              =     -34.10110337 Ry
     estimated scf accuracy    <          3.4E-14 Ry

     iteration # 14     ecut=    70.00 Ry     beta= 0.70
     Davidson diagonalization with overlap
     ethr =  1.00E-13,  avg # of iterations =  1.0

     total cpu time spent up to now is       65.8 secs

     total energy              =     -34.10110337 Ry
     estimated scf accuracy    <          1.7E-14 Ry

     iteration # 15     ecut=    70.00 Ry     beta= 0.70
     Davidson diagonalization with overlap
     ethr =  1.00E-13,  avg # of iterations =  1.0

     total cpu time spent up to now is       68.9 secs

     total energy              =     -34.10110337 Ry
     estimated scf accuracy    <          2.8E-14 Ry

     iteration # 16     ecut=    70.00 Ry     beta= 0.70
     Davidson diagonalization with overlap
     ethr =  1.00E-13,  avg # of iterations =  1.0

     total cpu time spent up to now is       71.9 secs

     total energy              =     -34.10110337 Ry
     estimated scf accuracy    <          7.2E-15 Ry

     iteration # 17     ecut=    70.00 Ry     beta= 0.70
     Davidson diagonalization with overlap
     ethr =  1.00E-13,  avg # of iterations =  1.0

     total cpu time spent up to now is       74.9 secs

     total energy              =     -34.10110337 Ry
     estimated scf accuracy    <          1.2E-15 Ry

     iteration # 18     ecut=    70.00 Ry     beta= 0.70
     Davidson diagonalization with overlap
     ethr =  1.00E-13,  avg # of iterations =  1.0

     total cpu time spent up to now is       77.9 secs

     End of self-consistent calculation

     Number of k-points >= 100: set verbosity='high' to print the bands.

     highest occupied level (ev):     6.0323

!    total energy              =     -34.10110337 Ry
     estimated scf accuracy    <          2.4E-16 Ry

     The total energy is the sum of the following terms:
     one-electron contribution =       9.69428404 Ry
     hartree contribution      =       2.19062348 Ry
     xc contribution           =     -12.39489041 Ry
     ewald contribution        =     -33.59112047 Ry

     convergence has been achieved in  18 iterations

     Forces acting on atoms (cartesian axes, Ry/au):

     atom    1 type  1   force =     0.00000000   -0.00000000    0.00000000
     atom    2 type  1   force =    -0.00000000    0.00000000   -0.00000000
     atom    3 type  1   force =     0.00000000   -0.00000000    0.00000000
     atom    4 type  1   force =    -0.00000000    0.00000000   -0.00000000

     Total force =     0.000000     Total SCF correction =     0.000000
     SCF correction compared to forces is large: reduce conv_thr to get better values


     Computing stress (Cartesian axis) and pressure

          total   stress  (Ry/bohr**3)                   (kbar)     P=      -18.85
  -0.00012814   0.00000000  -0.00000000          -18.85        0.00       -0.00
   0.00000000  -0.00012814   0.00000000            0.00      -18.85        0.00
  -0.00000000   0.00000000  -0.00012814           -0.00        0.00      -18.85


     Writing all to output data dir ./temp_supercell/si.save/
 
     init_run     :      1.84s CPU      2.04s WALL (       1 calls)
     electrons    :     74.90s CPU     75.84s WALL (       1 calls)
     forces       :      0.88s CPU      0.89s WALL (       1 calls)
     stress       :      1.63s CPU      1.64s WALL (       1 calls)

     Called by init_run:
     wfcinit      :      1.60s CPU      1.73s WALL (       1 calls)
     potinit      :      0.10s CPU      0.12s WALL (       1 calls)
     hinit0       :      0.11s CPU      0.15s WALL (       1 calls)

     Called by electrons:
     c_bands      :     64.55s CPU     65.32s WALL (      19 calls)
     sum_band     :     10.14s CPU     10.27s WALL (      19 calls)
     v_of_rho     :      0.11s CPU      0.12s WALL (      19 calls)
     mix_rho      :      0.06s CPU      0.06s WALL (      19 calls)

     Called by c_bands:
     init_us_2    :      3.16s CPU      3.23s WALL (    4223 calls)
     init_us_2:cp :      3.14s CPU      3.22s WALL (    4223 calls)
     cegterg      :     49.30s CPU     49.93s WALL (    1957 calls)

     Called by *egterg:
     cdiaghg      :      0.86s CPU      0.87s WALL (    6941 calls)
     h_psi        :     47.21s CPU     47.90s WALL (    7147 calls)
     g_psi        :      0.21s CPU      0.21s WALL (    5087 calls)

     Called by h_psi:
     h_psi:calbec :      3.59s CPU      3.64s WALL (    7147 calls)
     vloc_psi     :     40.15s CPU     40.77s WALL (    7147 calls)
     add_vuspsi   :      3.12s CPU      3.15s WALL (    7147 calls)

     General routines
     calbec       :      3.82s CPU      3.87s WALL (    7662 calls)
     fft          :      0.07s CPU      0.08s WALL (      65 calls)
     ffts         :      0.02s CPU      0.02s WALL (      19 calls)
     fftw         :     39.32s CPU     39.90s WALL (  110164 calls)
 
     Parallel routines
 
     PWSCF        :   1m19.48s CPU   1m23.10s WALL

 
   This run was terminated on:   7: 3:42   3Jun2022            

=------------------------------------------------------------------------------=
   JOB DONE.
=------------------------------------------------------------------------------=
