MPI startup(): Warning: I_MPI_PMI_LIBRARY will be ignored since the hydra process manager was found
MPI startup(): Warning: I_MPI_PMI_LIBRARY will be ignored since the hydra process manager was found
MPI startup(): Warning: I_MPI_PMI_LIBRARY will be ignored since the hydra process manager was found
MPI startup(): Warning: I_MPI_PMI_LIBRARY will be ignored since the hydra process manager was found

     Program PWSCF v.7.0 starts on  3Jun2022 at  6:58: 4 

     This program is part of the open-source Quantum ESPRESSO suite
     for quantum simulation of materials; please cite
         "P. Giannozzi et al., J. Phys.:Condens. Matter 21 395502 (2009);
         "P. Giannozzi et al., J. Phys.:Condens. Matter 29 465901 (2017);
         "P. Giannozzi et al., J. Chem. Phys. 152 154105 (2020);
          URL http://www.quantum-espresso.org", 
     in publications or presentations arising from this work. More details at
     http://www.quantum-espresso.org/quote

     Parallel version (MPI & OpenMP), running on       4 processor cores
     Number of MPI processes:                 4
     Threads/MPI process:                     1

     MPI processes distributed on     1 nodes
     60312 MiB available memory on the printing compute node when the environment starts
 
     Reading input from scf.standard.in

     Current dimensions of program PWSCF are:
     Max number of different atomic species (ntypx) = 10
     Max number of k-points (npk) =  40000
     Max angular momentum in pseudopotentials (lmaxx) =  4
     Message from routine setup:
     using ibrav=0 with symmetry is DISCOURAGED, use correct ibrav instead
 
     K-points division:     npool     =       4
     Subspace diagonalization in iterative solution of the eigenvalue problem:
     a serial algorithm will be used

 
     G-vector sticks info
     --------------------
     sticks:   dense  smooth     PW     G-vecs:    dense   smooth      PW
     Sum        1027    1027    313                21547    21547    3527
 
     Using Slab Decomposition
 


     bravais-lattice index     =            0
     lattice parameter (alat)  =      10.2633  a.u.
     unit-cell volume          =     270.2704 (a.u.)^3
     number of atoms/cell      =            2
     number of atomic types    =            1
     number of electrons       =         8.00
     number of Kohn-Sham states=            4
     kinetic-energy cutoff     =      70.0000  Ry
     charge density cutoff     =     280.0000  Ry
     scf convergence threshold =      1.0E-15
     mixing beta               =       0.7000
     number of iterations used =            8  plain     mixing
     Exchange-correlation= SLA  PW   NOGX NOGC
                           (   1   4   0   0   0   0   0)

     celldm(1)=  10.263280  celldm(2)=   0.000000  celldm(3)=   0.000000
     celldm(4)=   0.000000  celldm(5)=   0.000000  celldm(6)=   0.000000

     crystal axes: (cart. coord. in units of alat)
               a(1) = (   0.000000   0.500000   0.500000 )  
               a(2) = (   0.500000   0.000000   0.500000 )  
               a(3) = (   0.500000   0.500000   0.000000 )  

     reciprocal axes: (cart. coord. in units 2 pi/alat)
               b(1) = ( -1.000000  1.000000  1.000000 )  
               b(2) = (  1.000000 -1.000000  1.000000 )  
               b(3) = (  1.000000  1.000000 -1.000000 )  


     PseudoPot. # 1 for Si read from file:
     ~/PP/all/Si.dojo.sr.ONCVv0.4.lda.standard.upf
     MD5 check sum: Not computed, couldn't open file
     Pseudo is Norm-conserving + core correction, Zval =  4.0
     Generated using ONCVPSP code by D. R. Hamann
     Using radial grid of 1510 points,  6 beta functions with: 
                l(1) =   0
                l(2) =   0
                l(3) =   1
                l(4) =   1
                l(5) =   2
                l(6) =   2

     atomic species   valence    mass     pseudopotential
        Si             4.00    28.08550     Si( 1.00)

     48 Sym. Ops., with inversion, found (24 have fractional translation)



   Cartesian axes

     site n.     atom                  positions (alat units)
         1           Si  tau(   1) = (   0.0000000   0.0000000   0.5000000  )
         2           Si  tau(   2) = (   0.2500000   0.2500000   0.7500000  )

     number of k points=   145

     Number of k-points >= 100: set verbosity='high' to print them.

     Dense  grid:    21547 G-vectors     FFT dimensions: (  40,  40,  40)

     Estimated max dynamical RAM per process >      23.02 MB

     Estimated total dynamical RAM >      76.31 MB

     Initial potential from superposition of free atoms

     starting charge       7.9989, renormalised to       8.0000
     Starting wfcs are    8 randomized atomic wfcs

     total cpu time spent up to now is        0.7 secs

     Self-consistent Calculation

     iteration #  1     ecut=    70.00 Ry     beta= 0.70
     Davidson diagonalization with overlap
     ethr =  1.00E-02,  avg # of iterations =  2.0

     Threshold (ethr) on eigenvalues was too large:
     Diagonalizing with lowered threshold

     Davidson diagonalization with overlap
     ethr =  5.90E-04,  avg # of iterations =  2.0

     total cpu time spent up to now is        2.8 secs

     total energy              =     -17.04752982 Ry
     estimated scf accuracy    <       0.05589182 Ry

     iteration #  2     ecut=    70.00 Ry     beta= 0.70
     Davidson diagonalization with overlap
     ethr =  6.99E-04,  avg # of iterations =  1.0

     total cpu time spent up to now is        3.6 secs

     total energy              =     -17.04965753 Ry
     estimated scf accuracy    <       0.00247848 Ry

     iteration #  3     ecut=    70.00 Ry     beta= 0.70
     Davidson diagonalization with overlap
     ethr =  3.10E-05,  avg # of iterations =  2.9

     total cpu time spent up to now is        4.7 secs

     total energy              =     -17.05047610 Ry
     estimated scf accuracy    <       0.00009098 Ry

     iteration #  4     ecut=    70.00 Ry     beta= 0.70
     Davidson diagonalization with overlap
     ethr =  1.14E-06,  avg # of iterations =  4.4

     total cpu time spent up to now is        6.1 secs

     total energy              =     -17.05054899 Ry
     estimated scf accuracy    <       0.00000269 Ry

     iteration #  5     ecut=    70.00 Ry     beta= 0.70
     Davidson diagonalization with overlap
     ethr =  3.36E-08,  avg # of iterations =  4.5

     total cpu time spent up to now is        7.4 secs

     total energy              =     -17.05055162 Ry
     estimated scf accuracy    <       0.00000015 Ry

     iteration #  6     ecut=    70.00 Ry     beta= 0.70
     Davidson diagonalization with overlap
     ethr =  1.91E-09,  avg # of iterations =  3.2

     total cpu time spent up to now is        8.6 secs

     total energy              =     -17.05055168 Ry
     estimated scf accuracy    <       0.00000003 Ry

     iteration #  7     ecut=    70.00 Ry     beta= 0.70
     Davidson diagonalization with overlap
     ethr =  3.19E-10,  avg # of iterations =  2.7

     total cpu time spent up to now is        9.7 secs

     total energy              =     -17.05055168 Ry
     estimated scf accuracy    <          5.4E-11 Ry

     iteration #  8     ecut=    70.00 Ry     beta= 0.70
     Davidson diagonalization with overlap
     ethr =  6.80E-13,  avg # of iterations =  7.9

     total cpu time spent up to now is       11.8 secs

     total energy              =     -17.05055168 Ry
     estimated scf accuracy    <          4.9E-11 Ry

     iteration #  9     ecut=    70.00 Ry     beta= 0.70
     Davidson diagonalization with overlap
     ethr =  6.17E-13,  avg # of iterations =  2.0

     total cpu time spent up to now is       12.8 secs

     total energy              =     -17.05055168 Ry
     estimated scf accuracy    <          1.6E-11 Ry

     iteration # 10     ecut=    70.00 Ry     beta= 0.70
     Davidson diagonalization with overlap
     ethr =  2.01E-13,  avg # of iterations =  1.1

     total cpu time spent up to now is       13.6 secs

     total energy              =     -17.05055168 Ry
     estimated scf accuracy    <          3.7E-13 Ry

     iteration # 11     ecut=    70.00 Ry     beta= 0.70
     Davidson diagonalization with overlap
     ethr =  1.00E-13,  avg # of iterations =  1.0

     total cpu time spent up to now is       14.4 secs

     total energy              =     -17.05055168 Ry
     estimated scf accuracy    <          4.0E-13 Ry

     iteration # 12     ecut=    70.00 Ry     beta= 0.70
     Davidson diagonalization with overlap
     ethr =  1.00E-13,  avg # of iterations =  1.0

     total cpu time spent up to now is       15.2 secs

     total energy              =     -17.05055168 Ry
     estimated scf accuracy    <          5.9E-14 Ry

     iteration # 13     ecut=    70.00 Ry     beta= 0.70
     Davidson diagonalization with overlap
     ethr =  1.00E-13,  avg # of iterations =  1.0

     total cpu time spent up to now is       16.1 secs

     total energy              =     -17.05055168 Ry
     estimated scf accuracy    <          7.5E-15 Ry

     iteration # 14     ecut=    70.00 Ry     beta= 0.70
     Davidson diagonalization with overlap
     ethr =  1.00E-13,  avg # of iterations =  1.0

     total cpu time spent up to now is       16.9 secs

     End of self-consistent calculation

     Number of k-points >= 100: set verbosity='high' to print the bands.

     highest occupied level (ev):     6.0323

!    total energy              =     -17.05055168 Ry
     estimated scf accuracy    <          1.4E-16 Ry

     The total energy is the sum of the following terms:
     one-electron contribution =       4.84714199 Ry
     hartree contribution      =       1.09531178 Ry
     xc contribution           =      -6.19744522 Ry
     ewald contribution        =     -16.79556023 Ry

     convergence has been achieved in  14 iterations

     Forces acting on atoms (cartesian axes, Ry/au):

     atom    1 type  1   force =    -0.00000000    0.00000000    0.00000000
     atom    2 type  1   force =    -0.00000000    0.00000000    0.00000000

     Total force =     0.000000     Total SCF correction =     0.000000


     Computing stress (Cartesian axis) and pressure

          total   stress  (Ry/bohr**3)                   (kbar)     P=      -18.85
  -0.00012814  -0.00000000   0.00000000          -18.85       -0.00        0.00
  -0.00000000  -0.00012814  -0.00000000           -0.00      -18.85       -0.00
  -0.00000000  -0.00000000  -0.00012814           -0.00       -0.00      -18.85


     Writing all to output data dir ./temp_standard/si.save/
 
     init_run     :      0.62s CPU      0.63s WALL (       1 calls)
     electrons    :     16.08s CPU     16.16s WALL (       1 calls)
     forces       :      0.23s CPU      0.23s WALL (       1 calls)
     stress       :      0.47s CPU      0.48s WALL (       1 calls)

     Called by init_run:
     wfcinit      :      0.53s CPU      0.54s WALL (       1 calls)
     potinit      :      0.02s CPU      0.02s WALL (       1 calls)
     hinit0       :      0.03s CPU      0.04s WALL (       1 calls)

     Called by electrons:
     c_bands      :     14.04s CPU     14.10s WALL (      15 calls)
     sum_band     :      1.88s CPU      1.89s WALL (      15 calls)
     v_of_rho     :      0.08s CPU      0.09s WALL (      15 calls)
     mix_rho      :      0.06s CPU      0.07s WALL (      15 calls)

     Called by c_bands:
     init_us_2    :      0.84s CPU      0.84s WALL (    1221 calls)
     init_us_2:cp :      0.83s CPU      0.84s WALL (    1221 calls)
     cegterg      :      9.18s CPU      9.23s WALL (     555 calls)

     Called by *egterg:
     cdiaghg      :      0.07s CPU      0.07s WALL (    2019 calls)
     h_psi        :      8.92s CPU      8.96s WALL (    2093 calls)
     g_psi        :      0.11s CPU      0.11s WALL (    1501 calls)

     Called by h_psi:
     h_psi:calbec :      0.32s CPU      0.32s WALL (    2093 calls)
     vloc_psi     :      8.26s CPU      8.30s WALL (    2093 calls)
     add_vuspsi   :      0.30s CPU      0.30s WALL (    2093 calls)

     General routines
     calbec       :      0.35s CPU      0.35s WALL (    2278 calls)
     fft          :      0.03s CPU      0.03s WALL (      53 calls)
     ffts         :      0.01s CPU      0.01s WALL (      15 calls)
     fftw         :      8.41s CPU      8.45s WALL (   16458 calls)
 
     Parallel routines
 
     PWSCF        :     17.49s CPU     17.65s WALL

 
   This run was terminated on:   6:58:22   3Jun2022            

=------------------------------------------------------------------------------=
   JOB DONE.
=------------------------------------------------------------------------------=
